# vtk DataFile Version 3.0
VTK
ASCII
DATASET STRUCTURED_POINTS
DIMENSIONS                             8 8 8
ORIGIN                                 0 0 0
SPACING                                1 1 1
POINT_DATA                             512
SCALARS  scalars  float                1
LOOKUP_TABLE default
 -0.560977 -0.604246 -0.304205 0.293501 0.477552 0.511354 0.417646 -0.014565 -0.441830 -0.174007 0.306590 0.474047 0.489017 0.406908 0.202180 -0.246572 -0.102263 0.323462 0.489320 0.505791 0.389567 0.071618 -0.318103 -0.391372 0.175008 0.426528 0.483932 0.418643 0.126197 -0.398006 -0.517361 -0.351599 0.234005 0.334832 0.337410 0.239888 -0.082424 -0.366388 -0.342216 -0.057072 0.057722 -0.098325 -0.088111 0.017961 0.096949 0.174764 0.246478 0.219425 -0.342801 -0.569025 -0.526412 -0.146053 0.293275 0.445712 0.451598 0.245282 -0.530740 -0.685583 -0.580807 -0.026017 0.405144 0.517841 0.477942 0.147314 -0.673147 -0.605425 -0.032258 0.454047 0.568676 0.558658 0.385115 -0.345376 -0.372427 -0.056090 0.377400 0.527597 0.557193 0.520159 0.368002 -0.077952 0.216971 0.344876 0.437018 0.465593 0.450696 0.397768 0.302324 0.195792 0.338198 0.308344 0.229866 0.160579 0.131387 0.158668 0.212921 0.288836 0.172037 -0.145431 -0.359516 -0.360180 -0.176834 0.121555 0.275643 0.297803 -0.360654 -0.613417 -0.626356 -0.438287 0.094198 0.369050 0.403341 0.217807 -0.640820 -0.758761 -0.667946 -0.181778 0.388661 0.514350 0.442075 -0.055647 -0.725624 -0.759659 -0.535360 0.242264 0.521465 0.559142 0.411269 -0.329847 -0.622160 -0.395299 0.270032 0.509851 0.560452 0.507249 0.239203 -0.469040 -0.274766 0.129309 0.425740 0.529010 0.545502 0.498991 0.320006 -0.133595 0.281811 0.268444 0.289035 0.337767 0.412497 0.462891 0.437858 0.352246 0.360410 -0.023574 -0.401918 -0.411604 -0.061693 0.363231 0.482252 0.478538 0.191977 -0.508416 -0.708938 -0.690625 -0.406103 0.312399 0.496735 0.468535 -0.266575 -0.687242 -0.767721 -0.670056 -0.203359 0.401507 0.502289 0.366194 -0.560978 -0.722102 -0.677948 -0.365126 0.292498 0.492993 0.457537 0.083849 -0.664969 -0.643900 -0.324599 0.302839 0.499625 0.518912 0.339343 -0.372681 -0.311425 0.203265 0.438380 0.488206 0.428687 0.261078 -0.150914 -0.431778 -0.122764 0.278656 0.446905 0.483498 0.439313 0.296411 -0.049635 -0.313031 0.207451 0.136926 0.092600 0.160719 0.288722 0.365870 0.344066 0.269115 0.319550 -0.304075 -0.602656 -0.595158 -0.255797 0.360277 0.506594 0.492300 0.307798 -0.499348 -0.763687 -0.771101 -0.515087 0.331948 0.551437 0.540437 0.239194 -0.508628 -0.742035 -0.740267 -0.453193 0.353816 0.545576 0.510091 0.088023 -0.384114 -0.546302 -0.491173 -0.062729 0.377854 0.475505 0.386985 -0.177138 -0.060877 0.133652 0.243298 0.307048 0.333424 0.252701 -0.006780 0.215302 0.442010 0.466117 0.306787 -0.144240 -0.465291 -0.492394 -0.284334 -0.073021 0.330046 0.425417 0.350400 0.054972 -0.398665 -0.549530 -0.487977 -0.042785 0.028813 0.040219 0.011098 -0.039648 -0.075005 -0.132612 -0.136504 0.241218 -0.252389 -0.546037 -0.588330 -0.395639 0.167090 0.371029 0.381678 0.417811 -0.165008 -0.651834 -0.739305 -0.559227 0.235626 0.516632 0.544832 0.489076 0.122389 -0.567115 -0.728394 -0.585051 0.207005 0.531994 0.577187 0.492888 0.323939 -0.209416 -0.580976 -0.535201 0.045555 0.444441 0.528685 0.418079 0.433483 0.309597 -0.095296 -0.393528 -0.292063 0.092357 0.322532 0.336447 0.445305 0.341024 -0.200295 -0.611943 -0.678213 -0.540539 -0.070908 -0.210793 0.271077 0.356774 0.121934 -0.471733 -0.680008 -0.699817 -0.587561 -0.383515 0.013233 0.201215 0.048736 -0.387783 -0.582557 -0.618879 -0.572914 0.073463 0.061365 -0.113682 -0.360254 -0.475807 -0.387832 -0.185003 -0.022975 0.450485 0.305262 -0.203432 -0.567685 -0.577073 -0.154923 0.318164 0.448087 0.566600 0.439688 -0.091991 -0.627742 -0.644529 -0.132060 0.441487 0.569434 0.586213 0.496743 0.072997 -0.612036 -0.687735 -0.351298 0.390903 0.567579 0.536225 0.504579 0.231058 -0.499783 -0.685449 -0.564571 0.053568 0.439535 0.242306 0.227492 -0.011067 -0.418996 -0.575467 -0.536080 -0.271011 0.110464 -0.374711 0.089755 0.270543 0.082825 -0.420895 -0.626018 -0.653983 -0.587387 -0.510386 0.094839 0.375016 0.272932 -0.320688 -0.660859 -0.737799 -0.707144 -0.134238 0.310880 0.389858 0.201141 -0.397709 -0.637565 -0.644255 -0.521095 0.405150 0.469110 0.373677 -0.036095 -0.512309 -0.539484 -0.267575 0.188227 0.548943 0.511358 0.287110 -0.378883 -0.592180 -0.377466 0.276204 0.495126 0.558684 0.459590 0.059955 -0.568213 -0.643766 -0.305602 0.388773 0.554037 0.487700 0.354819 -0.161389 -0.598450 -0.649728 -0.402689 0.268845 0.479326 -0.175362 -0.365583 -0.329067 -0.156057 0.057537 0.207961 0.265935 0.156804 -0.455822 -0.131596 0.244874 0.321073 0.199209 -0.090518 -0.351693 -0.480788 -0.445746 0.222348 0.466058 0.445607 0.135208 -0.489418 -0.671651 -0.670779 -0.099934 0.412517 0.518863 0.419996 -0.122785 -0.631551 -0.715359 -0.600284 0.321145 0.480264 0.486048 0.305520 -0.303809 -0.579121 -0.521674 -0.163986 0.423124 0.409662 0.307503 0.020938 -0.317263 -0.248463 0.153609 0.364990 0.361705 0.132886 -0.223932 -0.398257 -0.281497 0.177687 0.434576 0.469481 0.183076 -0.295784 -0.496908 -0.470688 -0.176683 0.275115 0.447589 0.422605